40
Properties=species:S:1:pos:R:3 #=T CELL(abcABC):=T 1.889726e+02=T 90.00000=T Traj:=T positionsangstrom=T Step:=T 0=T Bead:=T pbc="F F F"
C      -47.95230000     -33.64140000     -75.31700000
C      -47.58820000     -32.93850000     -74.14050000
C      -47.81320000     -33.52040000     -72.85160000
C      -48.21140000     -34.91940000     -72.74750000
C      -48.41530000     -35.61650000     -73.97690000
C      -48.34920000     -34.99920000     -75.20830000
H      -47.90150000     -33.24850000     -76.37560000
H      -47.67630000     -32.75640000     -72.12810000
H      -48.81840000     -36.64050000     -73.94710000
H      -48.58980000     -35.52300000     -76.14380000
C      -48.58300000     -35.63400000     -71.43070000
H      -48.66930000     -36.68020000     -71.62340000
H      -49.52370000     -35.31880000     -70.99210000
C      -47.08740000     -31.54490000     -74.33250000
H      -47.57050000     -31.15650000     -75.23010000
H      -47.43760000     -30.89180000     -73.50680000
S      -47.37090000     -35.34540000     -70.09940000
S      -45.23970000     -31.29290000     -74.35800000
C      -45.78080000     -36.08500000     -70.64270000
H      -45.46040000     -36.81860000     -69.84110000
H      -45.90490000     -36.58020000     -71.55670000
C      -44.86670000     -31.57550000     -72.49470000
H      -45.71080000     -32.03300000     -72.04230000
H      -44.93370000     -30.53950000     -72.08120000
C      -43.49670000     -32.32640000     -72.34760000
H      -43.71050000     -33.33230000     -72.62700000
H      -42.78010000     -31.93380000     -73.04680000
C      -44.72360000     -34.96640000     -70.90260000
H      -45.11900000     -34.24760000     -71.55070000
H      -43.90390000     -35.47270000     -71.45820000
C      -44.14970000     -34.32570000     -69.66270000
C      -44.26200000     -34.70520000     -68.35930000
C      -43.45590000     -33.03600000     -69.78330000
H      -44.88850000     -35.58660000     -68.04000000
C      -43.02990000     -32.53220000     -68.57890000
C      -43.01760000     -32.22910000     -70.91080000
C      -42.11990000     -31.26090000     -70.54100000
S      -43.46360000     -33.56260000     -67.25140000
S      -41.92590000     -31.19380000     -68.79450000
H      -41.76790000     -30.51290000     -71.22240000
