40
Properties=species:S:1:pos:R:3 #=T CELL(abcABC):=T 1.889726e+02=T 90.00000=T Traj:=T positionsangstrom=T Step:=T 0=T Bead:=T pbc="F F F"
C      -48.40220000     -35.55500000     -68.66670000
C      -47.00960000     -35.50390000     -68.92330000
C      -46.50080000     -35.74920000     -70.19040000
C      -47.37440000     -36.19020000     -71.24800000
C      -48.74150000     -36.35600000     -70.93340000
C      -49.21340000     -36.05620000     -69.64030000
H      -48.77300000     -35.50400000     -67.58810000
H      -45.48780000     -35.65600000     -70.56460000
H      -49.41720000     -36.66420000     -71.72990000
H      -50.28360000     -36.11330000     -69.57700000
C      -46.93600000     -36.44590000     -72.67010000
H      -47.30100000     -37.45650000     -73.03920000
H      -45.86150000     -36.34430000     -72.78850000
C      -46.03270000     -35.02630000     -67.85360000
H      -46.28100000     -35.41750000     -66.87140000
H      -44.98920000     -35.19550000     -68.21700000
S      -47.73590000     -35.17610000     -73.92720000
S      -46.22420000     -33.18910000     -67.52940000
C      -46.27180000     -33.99000000     -74.15530000
H      -45.54040000     -34.63830000     -74.66010000
H      -46.53800000     -33.21530000     -74.86720000
C      -44.73350000     -32.55300000     -68.44220000
H      -44.01530000     -33.36840000     -68.45310000
H      -44.30340000     -31.66180000     -68.01910000
C      -45.11510000     -32.14650000     -69.86620000
H      -45.62110000     -32.91800000     -70.46050000
H      -45.99170000     -31.43310000     -69.77690000
C      -45.62030000     -33.37160000     -72.88810000
H      -45.48020000     -34.12340000     -72.18000000
H      -46.28260000     -32.59440000     -72.46680000
C      -44.33510000     -32.59840000     -73.13620000
C      -43.74930000     -32.36350000     -74.39950000
C      -43.65710000     -31.85760000     -72.09380000
H      -44.06830000     -32.77150000     -75.42550000
C      -42.51030000     -31.22790000     -72.62860000
C      -43.93850000     -31.54160000     -70.71720000
C      -43.08460000     -30.58180000     -70.26780000
S      -42.24490000     -31.40780000     -74.32880000
S      -41.70830000     -30.21440000     -71.39020000
H      -43.04030000     -30.14830000     -69.25330000
