40
Properties=species:S:1:pos:R:3 #=T CELL(abcABC):=T 1.889726e+02=T 90.00000=T Traj:=T positionsangstrom=T Step:=T 0=T Bead:=T pbc="F F F"
C      -45.39110000     -32.41300000     -74.50510000
C      -46.35130000     -33.42590000     -74.33570000
C      -47.47070000     -33.23910000     -73.54090000
C      -47.76670000     -31.93560000     -73.10040000
C      -46.82960000     -30.92590000     -73.23440000
C      -45.62510000     -31.15130000     -73.93320000
H      -44.50600000     -32.58640000     -75.19520000
H      -48.14410000     -34.09700000     -73.37030000
H      -47.02960000     -29.93010000     -72.77920000
H      -44.78860000     -30.45320000     -73.97780000
C      -49.04470000     -31.77370000     -72.21290000
H      -49.95030000     -32.26690000     -72.63480000
H      -49.41510000     -30.72480000     -72.18950000
C      -46.06310000     -34.73850000     -75.05590000
H      -46.91250000     -35.04630000     -75.73370000
H      -45.18310000     -34.59330000     -75.64940000
S      -48.80370000     -32.54320000     -70.56660000
S      -45.76700000     -36.21240000     -73.94710000
C      -47.09050000     -32.14870000     -70.08170000
H      -46.51560000     -31.95810000     -71.00070000
H      -47.11860000     -31.19480000     -69.50390000
C      -44.37730000     -35.76220000     -72.89950000
H      -43.70420000     -35.18160000     -73.49920000
H      -43.95740000     -36.77640000     -72.67240000
C      -44.88950000     -35.13600000     -71.60450000
H      -45.76230000     -34.43590000     -71.74940000
H      -45.35690000     -36.02950000     -71.05280000
C      -46.55260000     -33.34170000     -69.24380000
H      -46.61740000     -34.26390000     -69.71750000
H      -47.12470000     -33.34170000     -68.27930000
C      -45.14610000     -33.20390000     -68.81380000
C      -44.83170000     -32.61920000     -67.63780000
C      -43.94810000     -33.73520000     -69.56590000
H      -45.47610000     -32.12770000     -66.99890000
C      -42.74460000     -33.21850000     -69.03880000
C      -43.77960000     -34.36000000     -70.83980000
C      -42.40960000     -34.44860000     -71.18380000
S      -43.02120000     -32.43140000     -67.43000000
S      -41.40800000     -33.60230000     -70.00490000
H      -41.87390000     -34.93530000     -71.95010000
