40
Properties=species:S:1:pos:R:3 #=T CELL(abcABC):=T 1.889726e+02=T 90.00000=T Traj:=T positionsangstrom=T Step:=T 0=T Bead:=T pbc="F F F"
C      -44.56250000     -36.49800000     -74.01320000
C      -43.95400000     -35.67180000     -73.08180000
C      -43.88910000     -34.31820000     -73.27330000
C      -44.47780000     -33.75800000     -74.42690000
C      -44.98150000     -34.60080000     -75.45210000
C      -45.06300000     -35.98830000     -75.20580000
H      -44.56230000     -37.53400000     -73.71520000
H      -43.47850000     -33.62970000     -72.48520000
H      -45.39780000     -34.19930000     -76.34690000
H      -45.41430000     -36.65390000     -76.00220000
C      -44.51720000     -32.26350000     -74.64680000
H      -44.92500000     -31.98530000     -75.59230000
H      -43.48280000     -31.85880000     -74.69290000
C      -43.31010000     -36.29830000     -71.88310000
H      -42.85430000     -37.19860000     -72.06670000
H      -42.60090000     -35.63940000     -71.44900000
S      -45.25400000     -31.32680000     -73.28510000
S      -44.51600000     -36.47800000     -70.38190000
C      -47.03320000     -31.83350000     -73.23610000
H      -47.69760000     -30.96800000     -73.61020000
H      -47.21690000     -32.63180000     -73.89830000
C      -46.07570000     -35.63470000     -70.94970000
H      -46.72190000     -36.38630000     -71.51790000
H      -45.83550000     -34.80670000     -71.65710000
C      -46.85320000     -35.03520000     -69.79830000
H      -47.78600000     -34.65610000     -70.18260000
H      -47.01110000     -35.78700000     -68.96440000
C      -47.38680000     -32.33070000     -71.84020000
H      -47.07510000     -33.40370000     -71.75930000
H      -48.53310000     -32.45010000     -71.54480000
C      -46.67780000     -31.71230000     -70.74410000
C      -46.44280000     -30.35690000     -70.60650000
C      -46.06380000     -32.48870000     -69.65690000
H      -46.74470000     -29.50270000     -71.28150000
C      -45.36970000     -31.67160000     -68.77200000
C      -46.13030000     -33.87190000     -69.22070000
C      -45.44380000     -33.97290000     -68.05580000
S      -45.54720000     -29.95480000     -69.13560000
S      -44.67160000     -32.56210000     -67.43390000
H      -45.41860000     -34.93840000     -67.56920000
