40
Properties=species:S:1:pos:R:3 #=T CELL(abcABC):=T 1.889726e+02=T 90.00000=T Traj:=T positionsangstrom=T Step:=T 0=T Bead:=T pbc="F F F"
C      -43.48380000     -35.41250000     -72.88520000
C      -43.62960000     -36.08760000     -71.69400000
C      -43.03490000     -35.65350000     -70.49210000
C      -42.26740000     -34.38820000     -70.46180000
C      -42.11740000     -33.72350000     -71.72950000
C      -42.68250000     -34.27620000     -72.90980000
H      -43.90920000     -35.70420000     -73.84810000
H      -43.11470000     -36.23570000     -69.55600000
H      -41.65830000     -32.75710000     -71.85970000
H      -42.59300000     -33.77170000     -73.88170000
C      -41.87020000     -33.76310000     -69.18960000
H      -40.77070000     -33.62090000     -69.13610000
H      -42.09940000     -34.21610000     -68.24450000
C      -44.51390000     -37.32680000     -71.61180000
H      -44.74710000     -37.71790000     -72.61480000
H      -44.11670000     -38.05980000     -70.88030000
S      -42.74260000     -32.07210000     -69.07400000
S      -46.14720000     -36.77080000     -70.88470000
C      -44.36270000     -32.72460000     -68.64820000
H      -44.22400000     -33.51560000     -67.90160000
H      -44.79760000     -31.94140000     -68.02250000
C      -47.01190000     -35.63860000     -72.14020000
H      -47.55010000     -36.31030000     -72.86620000
H      -46.22690000     -34.99570000     -72.58290000
C      -47.94010000     -34.69240000     -71.34110000
H      -48.91990000     -35.24840000     -71.25350000
H      -47.56630000     -34.72200000     -70.29070000
C      -45.32800000     -33.12290000     -69.77900000
H      -46.16380000     -33.74840000     -69.39060000
H      -44.75340000     -33.82290000     -70.43440000
C      -45.88940000     -32.02240000     -70.66260000
C      -45.42070000     -30.76240000     -70.64390000
C      -46.91450000     -32.24480000     -71.68800000
H      -44.72530000     -30.31440000     -70.00120000
C      -47.14310000     -31.10670000     -72.41360000
C      -47.94080000     -33.28920000     -71.98670000
C      -48.78880000     -32.84450000     -72.96140000
S      -46.07020000     -29.75200000     -71.97650000
S      -48.46110000     -31.25550000     -73.54150000
H      -49.67570000     -33.29630000     -73.38700000
