40
Properties=species:S:1:pos:R:3 #=T CELL(abcABC):=T 1.889726e+02=T 90.00000=T Traj:=T positionsangstrom=T Step:=T 0=T Bead:=T pbc="F F F"
C      -47.05830000     -36.60750000     -73.30250000
C      -45.76300000     -36.08720000     -73.39470000
C      -44.89300000     -36.24750000     -72.27720000
C      -45.36150000     -36.90140000     -71.12850000
C      -46.74000000     -37.19700000     -71.04200000
C      -47.57130000     -37.05090000     -72.08880000
H      -47.65650000     -36.53140000     -74.22510000
H      -43.84770000     -35.90420000     -72.34200000
H      -47.25200000     -37.43030000     -70.13260000
H      -48.60850000     -37.25190000     -71.84610000
C      -44.49610000     -36.98000000     -69.93580000
H      -43.49690000     -36.61790000     -70.16450000
H      -44.44770000     -38.04120000     -69.70100000
C      -45.15610000     -35.72450000     -74.70010000
H      -44.12100000     -36.17800000     -74.85540000
H      -45.69630000     -36.23870000     -75.45330000
S      -45.09930000     -36.05810000     -68.39020000
S      -45.20100000     -33.90740000     -75.11650000
C      -44.79020000     -34.34090000     -69.04680000
H      -44.37170000     -33.82900000     -68.15350000
H      -43.88380000     -34.48900000     -69.70910000
C      -45.55790000     -33.03700000     -73.56820000
H      -46.24090000     -33.66950000     -72.96300000
H      -46.00660000     -32.07820000     -73.90860000
C      -44.25270000     -32.70360000     -72.72770000
H      -44.06050000     -33.55620000     -72.07320000
H      -43.39060000     -32.58050000     -73.36280000
C      -45.90420000     -33.53220000     -69.68920000
H      -46.63530000     -33.68030000     -68.99580000
H      -46.13700000     -33.91580000     -70.72440000
C      -45.71590000     -32.05780000     -69.67050000
C      -46.30600000     -31.27650000     -68.70480000
C      -45.00050000     -31.22150000     -70.63090000
H      -46.86590000     -31.63280000     -67.78380000
C      -45.01810000     -29.87990000     -70.33350000
C      -44.47050000     -31.43650000     -71.95320000
C      -44.04450000     -30.26440000     -72.53760000
S      -45.76960000     -29.59700000     -68.73780000
S      -44.17350000     -28.87370000     -71.49340000
H      -43.51430000     -30.05660000     -73.45080000
