40
Properties=species:S:1:pos:R:3 #=T CELL(abcABC):=T 1.889726e+02=T 90.00000=T Traj:=T positionsangstrom=T Step:=T 0=T Bead:=T pbc="F F F"
C      -43.61130000     -35.15780000     -68.61740000
C      -43.03780000     -35.50820000     -69.88130000
C      -43.89100000     -36.10900000     -70.85660000
C      -45.18250000     -36.53580000     -70.49250000
C      -45.66970000     -36.16000000     -69.27110000
C      -44.88860000     -35.45680000     -68.36310000
H      -42.96240000     -34.69740000     -67.82800000
H      -43.51960000     -36.46020000     -71.82060000
H      -46.65740000     -36.52480000     -68.91560000
H      -45.26020000     -35.36650000     -67.28140000
C      -46.06500000     -37.30650000     -71.45100000
H      -47.04870000     -37.44890000     -71.11690000
H      -45.55750000     -38.27590000     -71.59680000
C      -41.64030000     -35.02480000     -70.29170000
H      -40.99470000     -34.99210000     -69.40430000
H      -41.07540000     -35.72900000     -70.92420000
S      -46.25430000     -36.40080000     -73.10660000
S      -41.38740000     -33.38370000     -71.04970000
C      -46.62260000     -34.75610000     -72.49030000
H      -47.62260000     -34.68450000     -72.00890000
H      -45.79210000     -34.62100000     -71.75720000
C      -42.80490000     -32.30750000     -70.46560000
H      -42.46590000     -31.28730000     -70.23550000
H      -43.13280000     -32.82200000     -69.60720000
C      -43.87920000     -32.42810000     -71.57390000
H      -43.37980000     -32.24340000     -72.47230000
H      -44.08510000     -33.50990000     -71.68290000
C      -46.37300000     -33.67570000     -73.62570000
H      -46.90670000     -33.95940000     -74.53600000
H      -45.32790000     -33.58010000     -73.85430000
C      -46.91880000     -32.39480000     -73.06570000
C      -48.19350000     -32.00270000     -73.33610000
C      -46.25370000     -31.61030000     -72.06580000
H      -48.83520000     -32.43580000     -74.10090000
C      -47.17550000     -30.62490000     -71.54930000
C      -45.02640000     -31.48830000     -71.34330000
C      -44.93880000     -30.45860000     -70.43450000
S      -48.71790000     -30.55910000     -72.40130000
S      -46.46550000     -29.56950000     -70.35550000
H      -44.10710000     -30.24490000     -69.73730000
