40
Properties=species:S:1:pos:R:3 #=T CELL(abcABC):=T 1.889726e+02=T 90.00000=T Traj:=T positionsangstrom=T Step:=T 0=T Bead:=T pbc="F F F"
C      -46.40210000     -31.44750000     -68.19240000
C      -45.99650000     -31.29360000     -69.52050000
C      -46.52340000     -32.12370000     -70.52300000
C      -47.41140000     -33.13590000     -70.19290000
C      -47.81480000     -33.34700000     -68.84190000
C      -47.30890000     -32.46040000     -67.86900000
H      -45.96310000     -30.85920000     -67.38330000
H      -46.06780000     -32.07670000     -71.49400000
H      -48.21590000     -34.28050000     -68.42430000
H      -47.53490000     -32.60580000     -66.81270000
C      -47.80550000     -34.13350000     -71.21860000
H      -47.25630000     -33.83140000     -72.09020000
H      -48.89250000     -33.88670000     -71.50240000
C      -44.82200000     -30.41350000     -69.88900000
H      -44.84300000     -30.31220000     -70.98760000
H      -45.02630000     -29.38120000     -69.49140000
S      -47.55640000     -35.95860000     -70.70810000
S      -43.30360000     -31.06750000     -69.10780000
C      -45.85050000     -35.82700000     -70.00690000
H      -45.63640000     -34.84360000     -69.51150000
H      -45.75700000     -36.66360000     -69.27440000
C      -43.21340000     -32.94610000     -69.62360000
H      -44.24580000     -33.16740000     -69.63270000
H      -42.67510000     -33.45210000     -68.75740000
C      -42.47010000     -33.18420000     -70.93220000
H      -41.58910000     -32.60570000     -70.91820000
H      -42.18230000     -34.24350000     -70.84590000
C      -44.61320000     -36.01960000     -70.99090000
H      -44.53380000     -37.12330000     -71.12580000
H      -43.74570000     -35.55460000     -70.50260000
C      -44.84650000     -35.29970000     -72.34840000
C      -45.74380000     -35.79220000     -73.27530000
C      -44.28030000     -34.05210000     -72.72560000
H      -46.28220000     -36.78630000     -73.43240000
C      -44.83020000     -33.56110000     -73.84000000
C      -43.27130000     -33.04850000     -72.16870000
C      -43.12840000     -32.00690000     -73.02260000
S      -45.94870000     -34.65840000     -74.62110000
S      -44.20610000     -32.06710000     -74.40690000
H      -42.30840000     -31.30830000     -72.85350000
