40
Properties=species:S:1:pos:R:3 #=T CELL(abcABC):=T 1.889726e+02=T 90.00000=T Traj:=T positionsangstrom=T Step:=T 0=T Bead:=T pbc="F F F"
C      -41.95120000     -34.51510000     -72.67490000
C      -42.76080000     -34.48610000     -71.55400000
C      -44.13300000     -34.85110000     -71.78790000
C      -44.63300000     -35.12560000     -73.04250000
C      -43.75950000     -35.03850000     -74.15390000
C      -42.40790000     -34.79180000     -73.91040000
H      -40.92150000     -34.18050000     -72.58680000
H      -44.83290000     -34.84420000     -70.88830000
H      -44.12600000     -35.43400000     -75.14320000
H      -41.71140000     -34.81350000     -74.73470000
C      -46.07350000     -35.50900000     -73.27710000
H      -46.60190000     -35.65950000     -72.33800000
H      -46.06250000     -36.47870000     -73.74300000
C      -42.38700000     -33.84600000     -70.27000000
H      -43.06470000     -34.08660000     -69.45030000
H      -41.33780000     -34.15750000     -69.99380000
S      -46.91870000     -34.35910000     -74.40560000
S      -42.22120000     -31.98270000     -70.37160000
C      -46.27090000     -32.66170000     -73.91260000
H      -45.21320000     -32.69480000     -73.77120000
H      -46.35880000     -31.93540000     -74.75450000
C      -43.55630000     -31.31450000     -71.38940000
H      -43.82880000     -32.18520000     -72.10710000
H      -42.98600000     -30.65140000     -72.05680000
C      -44.70840000     -30.64170000     -70.65790000
H      -44.25030000     -30.00300000     -69.85690000
H      -45.31270000     -30.09510000     -71.34870000
C      -47.10750000     -31.95750000     -72.73470000
H      -48.04810000     -31.53670000     -73.18510000
H      -46.53010000     -31.14100000     -72.40760000
C      -47.36270000     -32.69240000     -71.49310000
C      -48.33160000     -33.69700000     -71.32800000
C      -46.62270000     -32.48790000     -70.25020000
H      -48.99810000     -34.07320000     -72.09580000
C      -47.06990000     -33.33560000     -69.22190000
C      -45.54560000     -31.61580000     -69.81480000
C      -45.14150000     -31.83700000     -68.48620000
S      -48.41460000     -34.43030000     -69.75310000
S      -46.15760000     -33.09990000     -67.73110000
H      -44.32710000     -31.46480000     -67.89080000
