40
Properties=species:S:1:pos:R:3 #=T CELL(abcABC):=T 1.889726e+02=T 90.00000=T Traj:=T positionsangstrom=T Step:=T 0=T Bead:=T pbc="F F F"
C      -49.70620000     -35.45400000     -69.95260000
C      -48.61400000     -34.53960000     -70.00590000
C      -47.89980000     -34.42600000     -71.21100000
C      -48.25480000     -35.16590000     -72.32520000
C      -49.34040000     -36.05800000     -72.30630000
C      -50.06880000     -36.21540000     -71.09780000
H      -50.28860000     -35.55350000     -69.04680000
H      -47.00000000     -33.80180000     -71.17140000
H      -49.67900000     -36.55300000     -73.16230000
H      -50.85380000     -36.96540000     -70.97980000
C      -47.47830000     -35.07230000     -73.69440000
H      -48.11610000     -34.48850000     -74.40350000
H      -47.36290000     -36.09340000     -74.12880000
C      -48.25630000     -33.86080000     -68.73990000
H      -49.15930000     -33.91170000     -68.08800000
H      -47.45390000     -34.41180000     -68.10460000
S      -45.91630000     -34.17230000     -73.59200000
S      -47.71120000     -32.06860000     -68.88980000
C      -44.63880000     -35.35840000     -72.93260000
H      -44.94500000     -36.39840000     -72.95910000
H      -43.79420000     -35.21720000     -73.52660000
C      -45.85260000     -32.17320000     -69.21540000
H      -45.45460000     -33.13890000     -69.03120000
H      -45.38190000     -31.42380000     -68.57720000
C      -45.65410000     -31.89260000     -70.64490000
H      -45.94520000     -32.74190000     -71.21540000
H      -46.20770000     -31.04650000     -71.06150000
C      -44.14060000     -35.05270000     -71.54980000
H      -43.77560000     -36.02480000     -71.13450000
H      -44.92770000     -34.74900000     -70.80900000
C      -42.98990000     -34.06750000     -71.54890000
C      -41.64970000     -34.38840000     -71.65850000
C      -43.13400000     -32.60490000     -71.45260000
H      -41.31480000     -35.39860000     -71.87870000
C      -41.87240000     -31.93870000     -71.55890000
C      -44.14050000     -31.62760000     -71.11540000
C      -43.73940000     -30.30220000     -71.18960000
S      -40.49900000     -33.06980000     -71.76140000
S      -42.00140000     -30.20600000     -71.48690000
H      -44.31140000     -29.36600000     -71.18800000
