40
Properties=species:S:1:pos:R:3 #=T CELL(abcABC):=T 1.889726e+02=T 90.00000=T Traj:=T positionsangstrom=T Step:=T 0=T Bead:=T pbc="F F F"
C      -46.04200000     -34.80230000     -69.19540000
C      -45.38050000     -35.55450000     -70.21130000
C      -46.02240000     -35.70690000     -71.45980000
C      -47.21670000     -35.03530000     -71.74900000
C      -47.81890000     -34.24800000     -70.77280000
C      -47.24960000     -34.19010000     -69.48390000
H      -45.53360000     -34.61550000     -68.25650000
H      -45.66640000     -36.42840000     -72.19250000
H      -48.82910000     -33.80400000     -70.95140000
H      -47.68560000     -33.55760000     -68.74800000
C      -47.87050000     -35.12010000     -73.11680000
H      -48.97090000     -35.10280000     -73.09150000
H      -47.64530000     -36.09180000     -73.58220000
C      -44.18720000     -36.39040000     -70.02500000
H      -44.24480000     -36.88630000     -69.06770000
H      -44.18300000     -37.10150000     -70.79850000
S      -47.19110000     -33.89740000     -74.34910000
S      -42.56750000     -35.53300000     -69.89980000
C      -45.40340000     -33.84070000     -74.10000000
H      -45.06520000     -34.49730000     -73.19830000
H      -44.91590000     -34.39300000     -74.99810000
C      -42.52580000     -34.72780000     -71.58660000
H      -43.48960000     -35.01040000     -72.04450000
H      -41.71110000     -35.28950000     -72.22320000
C      -42.29300000     -33.14330000     -71.55090000
H      -41.39330000     -32.89890000     -70.94960000
H      -42.03090000     -32.80270000     -72.58800000
C      -44.83080000     -32.37110000     -74.03750000
H      -45.18020000     -31.78670000     -74.92400000
H      -43.74070000     -32.52580000     -74.13350000
C      -45.24120000     -31.65760000     -72.77340000
C      -46.49340000     -31.03210000     -72.72510000
C      -44.71390000     -31.87270000     -71.44000000
H      -46.98460000     -30.70480000     -73.59010000
C      -45.44110000     -31.21020000     -70.44400000
C      -43.46010000     -32.32190000     -70.89720000
C      -43.39390000     -32.30010000     -69.50630000
S      -46.88630000     -30.43550000     -71.10970000
S      -44.74550000     -31.44300000     -68.85840000
H      -42.44560000     -32.45840000     -69.00750000
