40
Properties=species:S:1:pos:R:3 #=T CELL(abcABC):=T 1.889726e+02=T 90.00000=T Traj:=T positionsangstrom=T Step:=T 0=T Bead:=T pbc="F F F"
C      -43.51510000     -33.93870000     -72.85380000
C      -43.69390000     -32.53150000     -72.85570000
C      -44.85980000     -31.94000000     -73.45180000
C      -45.95630000     -32.72740000     -73.75460000
C      -45.78600000     -34.15870000     -73.75280000
C      -44.56980000     -34.73930000     -73.38100000
H      -42.55580000     -34.44800000     -72.52170000
H      -45.03860000     -30.87530000     -73.45420000
H      -46.58470000     -34.80350000     -74.09940000
H      -44.53810000     -35.84490000     -73.35830000
C      -47.27850000     -32.01690000     -74.05770000
H      -47.60990000     -32.26450000     -75.06090000
H      -47.11730000     -30.96250000     -74.05710000
C      -42.48780000     -31.68920000     -72.41570000
H      -41.83150000     -31.57420000     -73.31770000
H      -42.74300000     -30.67780000     -72.15730000
S      -48.75320000     -32.54170000     -72.93480000
S      -41.48010000     -32.26440000     -70.98880000
C      -48.54230000     -31.57530000     -71.29880000
H      -48.74040000     -30.51940000     -71.55560000
H      -49.35650000     -31.77800000     -70.66680000
C      -42.38150000     -31.57120000     -69.53140000
H      -42.17530000     -30.51660000     -69.58910000
H      -41.93530000     -31.93430000     -68.63970000
C      -43.90450000     -31.86430000     -69.50730000
H      -44.28260000     -31.41890000     -68.60500000
H      -44.26690000     -31.17040000     -70.34970000
C      -47.23440000     -31.73750000     -70.56330000
H      -47.18500000     -31.09020000     -69.63840000
H      -46.46540000     -31.42920000     -71.35610000
C      -46.98990000     -33.19380000     -70.21210000
C      -47.96790000     -34.20010000     -70.32420000
C      -45.60690000     -33.73820000     -69.98350000
H      -49.00280000     -34.07200000     -70.59380000
C      -45.75600000     -35.15890000     -69.90260000
C      -44.27800000     -33.33610000     -69.69920000
C      -43.40800000     -34.35480000     -69.61310000
S      -47.32720000     -35.84480000     -69.97860000
S      -44.21470000     -35.93960000     -69.71520000
H      -42.34050000     -34.26070000     -69.56840000
