40
Properties=species:S:1:pos:R:3 #=T CELL(abcABC):=T 1.889726e+02=T 90.00000=T Traj:=T positionsangstrom=T Step:=T 0=T Bead:=T pbc="F F F"
C      -42.90510000     -36.39180000     -71.83500000
C      -43.37560000     -35.81880000     -73.03330000
C      -42.92380000     -34.50390000     -73.42840000
C      -42.04730000     -33.84060000     -72.61560000
C      -41.49140000     -34.48160000     -71.47650000
C      -41.98260000     -35.72630000     -71.02180000
H      -43.12970000     -37.40540000     -71.58710000
H      -43.25490000     -34.00880000     -74.30230000
H      -40.57490000     -34.14000000     -71.02480000
H      -41.56620000     -36.24520000     -70.18450000
C      -41.51240000     -32.46230000     -72.96890000
H      -41.09740000     -32.40910000     -73.98590000
H      -40.75770000     -32.11260000     -72.27220000
C      -44.33980000     -36.45210000     -73.94090000
H      -43.88420000     -36.62270000     -74.91190000
H      -44.62610000     -37.44780000     -73.71600000
S      -42.97340000     -31.27340000     -72.96440000
S      -45.89050000     -35.42950000     -74.11510000
C      -43.81140000     -31.55390000     -71.36390000
H      -43.61850000     -32.56710000     -70.89990000
H      -43.38160000     -30.81920000     -70.68660000
C      -46.11370000     -34.78350000     -72.36750000
H      -45.18630000     -34.12310000     -72.21750000
H      -46.07080000     -35.62210000     -71.68990000
C      -47.41360000     -34.05680000     -72.28360000
H      -47.24160000     -33.17440000     -72.90900000
H      -48.16690000     -34.62920000     -72.67940000
C      -45.32630000     -31.25360000     -71.48250000
H      -45.85190000     -31.88980000     -72.15560000
H      -45.47480000     -30.25650000     -71.84480000
C      -46.08790000     -31.46300000     -70.15880000
C      -45.95610000     -30.72020000     -69.00240000
C      -47.06470000     -32.55800000     -70.03130000
H      -45.49780000     -29.77000000     -69.01000000
C      -47.73080000     -32.43410000     -68.75160000
C      -47.74010000     -33.51860000     -70.87270000
C      -48.86580000     -34.02710000     -70.25130000
S      -47.08000000     -31.15350000     -67.75680000
S      -49.12130000     -33.50400000     -68.63010000
H      -49.43670000     -34.86330000     -70.56670000
