40
Properties=species:S:1:pos:R:3 #=T CELL(abcABC):=T 1.889726e+02=T 90.00000=T Traj:=T positionsangstrom=T Step:=T 0=T Bead:=T pbc="F F F"
C      -43.96810000     -36.25670000     -74.18100000
C      -43.31790000     -35.00270000     -73.94390000
C      -43.96450000     -33.76720000     -74.02050000
C      -45.27220000     -33.74410000     -74.59770000
C      -45.93360000     -34.96700000     -74.83710000
C      -45.31240000     -36.22130000     -74.58230000
H      -43.44680000     -37.12550000     -73.90920000
H      -43.48780000     -32.90020000     -73.55030000
H      -47.00880000     -34.90760000     -75.12870000
H      -45.88150000     -37.17080000     -74.49810000
C      -46.00800000     -32.42800000     -74.81500000
H      -46.18660000     -32.14480000     -75.89010000
H      -45.43050000     -31.53550000     -74.41590000
C      -41.98020000     -35.13630000     -73.34180000
H      -41.79840000     -36.20100000     -73.14870000
H      -41.20800000     -34.87460000     -74.12310000
S      -47.69390000     -32.45630000     -74.04410000
S      -41.55390000     -33.96600000     -71.99850000
C      -47.31880000     -32.68490000     -72.25320000
H      -48.29790000     -33.06450000     -71.75550000
H      -46.63840000     -33.56980000     -72.29050000
C      -42.73100000     -34.38080000     -70.70430000
H      -42.21120000     -34.13600000     -69.71160000
H      -42.87950000     -35.43970000     -70.62640000
C      -44.15840000     -33.68840000     -70.82910000
H      -44.09730000     -32.74630000     -71.27060000
H      -44.70450000     -34.40210000     -71.41450000
C      -46.70370000     -31.40920000     -71.51830000
H      -47.25770000     -30.50840000     -71.83620000
H      -45.67560000     -31.36770000     -71.88760000
C      -46.82250000     -31.75750000     -70.05370000
C      -47.87910000     -31.15750000     -69.30960000
C      -45.89630000     -32.53770000     -69.29340000
H      -48.61730000     -30.37640000     -69.64240000
C      -46.34730000     -32.59210000     -67.90940000
C      -44.75500000     -33.42520000     -69.46100000
C      -44.44500000     -34.05620000     -68.28620000
S      -47.85000000     -31.62340000     -67.66120000
S      -45.37120000     -33.65590000     -66.90850000
H      -43.58930000     -34.71180000     -68.31190000
