40
Properties=species:S:1:pos:R:3 #=T CELL(abcABC):=T 1.889726e+02=T 90.00000=T Traj:=T positionsangstrom=T Step:=T 0=T Bead:=T pbc="F F F"
C      -44.72930000     -35.24710000     -73.10340000
C      -46.06120000     -34.84130000     -73.31500000
C      -46.99190000     -34.90760000     -72.20500000
C      -46.63900000     -35.59790000     -71.05440000
C      -45.34820000     -35.99620000     -70.93230000
C      -44.38740000     -35.85020000     -71.88390000
H      -43.99230000     -34.99640000     -73.87050000
H      -48.03430000     -34.62250000     -72.37140000
H      -45.15230000     -36.43490000     -69.90700000
H      -43.34580000     -36.22630000     -71.73620000
C      -47.64980000     -35.80960000     -69.90350000
H      -47.59660000     -36.87400000     -69.76470000
H      -48.68100000     -35.60720000     -70.22680000
C      -46.57590000     -34.23450000     -74.60180000
H      -46.43280000     -35.11960000     -75.29410000
H      -47.61310000     -33.91390000     -74.58160000
S      -47.10320000     -35.10790000     -68.30740000
S      -45.45730000     -32.85150000     -75.10450000
C      -47.70260000     -33.26670000     -68.40230000
H      -48.77470000     -33.33720000     -68.34940000
H      -47.33830000     -32.85630000     -67.50800000
C      -46.26600000     -31.41370000     -74.24920000
H      -47.28180000     -31.24630000     -74.64870000
H      -45.72190000     -30.56890000     -74.61430000
C      -46.36980000     -31.56320000     -72.76570000
H      -46.95810000     -30.72610000     -72.29270000
H      -46.94750000     -32.47490000     -72.50750000
C      -47.04870000     -32.52740000     -69.60130000
H      -47.47900000     -31.54670000     -69.52570000
H      -47.47510000     -32.92350000     -70.50550000
C      -45.48060000     -32.57780000     -69.62630000
C      -44.70190000     -32.89370000     -68.54470000
C      -44.71860000     -32.19170000     -70.79000000
H      -45.20710000     -33.06480000     -67.60150000
C      -43.30270000     -32.20960000     -70.48500000
C      -44.95990000     -31.65320000     -72.08960000
C      -43.76370000     -31.33940000     -72.74110000
S      -42.96110000     -32.64940000     -68.78400000
S      -42.32970000     -31.61690000     -71.73300000
H      -43.52060000     -30.98140000     -73.67420000
