40
Properties=species:S:1:pos:R:3 #=T CELL(abcABC):=T 1.889726e+02=T 90.00000=T Traj:=T positionsangstrom=T Step:=T 0=T Bead:=T pbc="F F F"
C      -48.04670000     -33.71370000     -68.64340000
C      -47.20480000     -34.85240000     -68.79870000
C      -45.86220000     -34.80600000     -68.43330000
C      -45.33810000     -33.56330000     -68.05840000
C      -46.06610000     -32.41900000     -68.17000000
C      -47.47320000     -32.47460000     -68.44160000
H      -49.12000000     -33.74850000     -68.65590000
H      -45.24040000     -35.69050000     -68.36790000
H      -45.63710000     -31.50490000     -67.69510000
H      -47.97580000     -31.51170000     -68.32520000
C      -44.01840000     -33.49540000     -67.44370000
H      -43.90060000     -34.44390000     -66.80700000
H      -43.71480000     -32.67950000     -66.74110000
C      -47.75820000     -36.20350000     -69.24990000
H      -47.43230000     -36.97290000     -68.53900000
H      -48.85720000     -36.17660000     -69.11120000
S      -42.63650000     -33.72240000     -68.70400000
S      -47.15100000     -36.77730000     -70.88640000
C      -43.25440000     -32.63090000     -70.15630000
H      -44.34930000     -32.60850000     -70.10100000
H      -42.94740000     -31.57620000     -69.98830000
C      -47.17570000     -35.28400000     -71.97040000
H      -48.00570000     -34.69990000     -71.61180000
H      -47.32400000     -35.64020000     -72.97870000
C      -45.87870000     -34.44040000     -71.91090000
H      -45.79360000     -34.17430000     -70.89890000
H      -45.00690000     -35.16390000     -72.00750000
C      -42.74160000     -33.13750000     -71.58930000
H      -43.05820000     -34.13920000     -71.78220000
H      -41.63600000     -33.08900000     -71.55360000
C      -43.29870000     -32.34800000     -72.76280000
C      -42.61900000     -31.42200000     -73.52390000
C      -44.67600000     -32.42610000     -73.25120000
H      -41.63460000     -31.13590000     -73.42760000
C      -44.90040000     -31.66800000     -74.41870000
C      -45.84520000     -33.31850000     -72.87830000
C      -46.92850000     -33.08430000     -73.78580000
S      -43.51430000     -30.71120000     -74.83470000
S      -46.46790000     -31.92300000     -75.13550000
H      -47.91930000     -33.43520000     -73.83810000
