40
Properties=species:S:1:pos:R:3 #=T CELL(abcABC):=T 1.889726e+02=T 90.00000=T Traj:=T positionsangstrom=T Step:=T 0=T Bead:=T pbc="F F F"
C      -46.10000000     -37.33470000     -71.54930000
C      -46.27620000     -36.43930000     -72.59930000
C      -45.17410000     -35.94720000     -73.36160000
C      -43.88750000     -36.33220000     -72.93340000
C      -43.69330000     -37.20180000     -71.80810000
C      -44.79440000     -37.74020000     -71.15520000
H      -46.87780000     -37.74980000     -70.96480000
H      -45.39490000     -35.28240000     -74.20780000
H      -42.71830000     -37.42180000     -71.48290000
H      -44.71310000     -38.51970000     -70.39210000
C      -42.65690000     -35.89480000     -73.63500000
H      -42.63160000     -36.18210000     -74.67560000
H      -41.73800000     -36.20660000     -73.13270000
C      -47.66860000     -35.96660000     -72.89980000
H      -47.99940000     -36.49000000     -73.75260000
H      -48.30420000     -36.21140000     -72.06960000
S      -42.57190000     -34.06460000     -73.82250000
S      -47.86880000     -34.23030000     -73.22050000
C      -42.81340000     -33.19160000     -72.22450000
H      -42.39680000     -33.61180000     -71.28470000
H      -42.25530000     -32.29030000     -72.42800000
C      -47.66030000     -33.58970000     -71.51890000
H      -46.71700000     -33.94300000     -71.19450000
H      -48.49060000     -33.91480000     -70.93120000
C      -47.59910000     -32.06450000     -71.66040000
H      -46.80520000     -31.77420000     -72.36450000
H      -48.55330000     -31.57730000     -71.88430000
C      -44.29930000     -32.58140000     -71.91620000
H      -44.96110000     -33.43240000     -71.97130000
H      -44.56390000     -31.96910000     -72.82660000
C      -44.40710000     -31.77790000     -70.64090000
C      -43.25970000     -31.45980000     -69.92720000
C      -45.65700000     -31.31900000     -70.04110000
H      -42.27610000     -31.55860000     -70.25260000
C      -45.37530000     -30.58990000     -68.84560000
C      -47.04560000     -31.40120000     -70.35410000
C      -47.80970000     -30.76750000     -69.44740000
S      -43.65680000     -30.47920000     -68.50330000
S      -46.86600000     -30.17330000     -68.09830000
H      -48.83520000     -30.56800000     -69.53900000
