40
Properties=species:S:1:pos:R:3 #=T CELL(abcABC):=T 1.889726e+02=T 90.00000=T Traj:=T positionsangstrom=T Step:=T 0=T Bead:=T pbc="F F F"
C      -47.39130000     -29.60020000     -68.88330000
C      -47.35600000     -30.42230000     -69.99800000
C      -46.19370000     -30.45410000     -70.81540000
C      -45.03210000     -29.77480000     -70.42320000
C      -45.06440000     -29.07190000     -69.21500000
C      -46.24050000     -28.93420000     -68.41380000
H      -48.32540000     -29.53610000     -68.26620000
H      -46.27530000     -30.91120000     -71.83340000
H      -44.11270000     -28.62600000     -68.81880000
H      -46.23730000     -28.39760000     -67.50670000
C      -43.73490000     -30.04160000     -71.12820000
H      -43.24350000     -30.75830000     -70.45330000
H      -43.14330000     -29.12850000     -71.11680000
C      -48.54040000     -31.38210000     -70.32580000
H      -49.47140000     -30.99700000     -69.96940000
H      -48.48780000     -31.47460000     -71.46060000
S      -43.71370000     -30.80460000     -72.79480000
S      -48.37510000     -33.13840000     -69.64940000
C      -43.47570000     -32.68960000     -72.68940000
H      -42.56900000     -32.91010000     -73.13200000
H      -43.45660000     -32.97660000     -71.62510000
C      -47.12740000     -33.84570000     -70.89250000
H      -47.12920000     -33.26250000     -71.87080000
H      -47.43610000     -34.82520000     -71.22890000
C      -45.73120000     -33.89010000     -70.27100000
H      -45.18170000     -32.96770000     -70.60050000
H      -45.77980000     -33.82140000     -69.20420000
C      -44.66900000     -33.41510000     -73.41090000
H      -44.71420000     -33.01560000     -74.48500000
H      -45.51270000     -33.04660000     -72.87790000
C      -44.43750000     -34.88780000     -73.31240000
C      -44.05360000     -35.73080000     -74.35140000
C      -44.59770000     -35.58130000     -72.08040000
H      -43.88310000     -35.44650000     -75.43780000
C      -44.24550000     -36.92120000     -72.21420000
C      -45.05760000     -35.21430000     -70.74650000
C      -44.94230000     -36.27910000     -69.90590000
S      -43.81600000     -37.37350000     -73.80480000
S      -44.29330000     -37.68740000     -70.70630000
H      -45.21160000     -36.26220000     -68.80750000
