40
Properties=species:S:1:pos:R:3 #=T CELL(abcABC):=T 1.889726e+02=T 90.00000=T Traj:=T positionsangstrom=T Step:=T 0=T Bead:=T pbc="F F F"
C      -47.08730000     -33.82400000     -69.54450000
C      -47.07650000     -35.01360000     -70.23580000
C      -47.25610000     -34.96710000     -71.62560000
C      -47.71000000     -33.80070000     -72.19090000
C      -47.94460000     -32.61390000     -71.44370000
C      -47.61430000     -32.64270000     -70.10160000
H      -46.82760000     -33.80130000     -68.52200000
H      -47.30250000     -35.87240000     -72.22040000
H      -48.18730000     -31.65520000     -71.82970000
H      -47.80100000     -31.84460000     -69.44870000
C      -47.90170000     -33.68840000     -73.70190000
H      -48.83020000     -33.20600000     -73.96520000
H      -48.02290000     -34.68180000     -74.16220000
C      -46.63840000     -36.18300000     -69.47930000
H      -47.12230000     -36.11980000     -68.40710000
H      -47.14500000     -37.09000000     -69.89570000
S      -46.58140000     -32.85550000     -74.60530000
S      -44.80380000     -36.49060000     -69.41600000
C      -45.13990000     -33.85380000     -74.18610000
H      -45.36580000     -34.48160000     -73.26600000
H      -44.88900000     -34.52610000     -74.96650000
C      -44.32250000     -36.27860000     -71.13140000
H      -45.28110000     -36.04290000     -71.68250000
H      -43.94170000     -37.15250000     -71.59060000
C      -43.24480000     -35.17990000     -71.16020000
H      -42.37650000     -35.62290000     -70.67730000
H      -42.92930000     -34.95940000     -72.18620000
C      -43.80930000     -33.00340000     -73.96530000
H      -43.53720000     -32.32330000     -74.84380000
H      -42.92640000     -33.59120000     -73.74530000
C      -43.99650000     -32.08800000     -72.72400000
C      -44.42300000     -30.77860000     -72.71680000
C      -43.89030000     -32.55650000     -71.36100000
H      -44.71700000     -30.14160000     -73.52340000
C      -44.17080000     -31.52270000     -70.41300000
C      -43.58250000     -33.81580000     -70.61240000
C      -43.47160000     -33.58140000     -69.22900000
S      -44.61260000     -30.05880000     -71.13220000
S      -43.68460000     -31.91160000     -68.80860000
H      -42.81450000     -34.18260000     -68.61140000
