40
Properties=species:S:1:pos:R:3 #=T CELL(abcABC):=T 1.889726e+02=T 90.00000=T Traj:=T positionsangstrom=T Step:=T 0=T Bead:=T pbc="F F F"
C      -43.53880000     -32.48170000     -73.22760000
C      -44.79990000     -32.67430000     -73.90440000
C      -45.88880000     -31.88000000     -73.55100000
C      -45.77420000     -30.84380000     -72.59510000
C      -44.53770000     -30.73120000     -71.89440000
C      -43.40800000     -31.46670000     -72.26830000
H      -42.66690000     -33.08950000     -73.53350000
H      -46.80540000     -31.99000000     -74.14760000
H      -44.36840000     -30.03540000     -71.06780000
H      -42.54320000     -31.31730000     -71.66960000
C      -47.00360000     -30.01070000     -72.36260000
H      -47.56510000     -29.78650000     -73.28700000
H      -46.76230000     -29.00280000     -71.99400000
C      -45.06570000     -33.75580000     -74.95560000
H      -45.96030000     -33.54000000     -75.52410000
H      -44.28150000     -33.88420000     -75.66570000
S      -48.22390000     -30.88290000     -71.26410000
S      -45.17370000     -35.40670000     -74.16430000
C      -47.48140000     -31.45680000     -69.76510000
H      -46.49480000     -30.95430000     -69.83110000
H      -48.04450000     -31.06160000     -68.91240000
C      -46.63540000     -35.19960000     -73.00750000
H      -47.52220000     -35.70490000     -73.50240000
H      -46.98050000     -34.16730000     -72.86500000
C      -46.49170000     -35.85590000     -71.67620000
H      -47.45450000     -35.63950000     -71.19740000
H      -46.43810000     -36.98530000     -71.81430000
C      -47.35360000     -33.05540000     -69.68590000
H      -47.51660000     -33.58230000     -70.69570000
H      -48.07960000     -33.37460000     -68.99770000
C      -45.95710000     -33.48100000     -69.19360000
C      -45.32030000     -32.77060000     -68.22350000
C      -45.18180000     -34.51180000     -69.80510000
H      -45.73860000     -31.90170000     -67.71850000
C      -43.85760000     -34.54130000     -69.29100000
C      -45.32330000     -35.44690000     -70.86490000
C      -44.16500000     -36.21680000     -71.02750000
S      -43.67550000     -33.42820000     -67.94720000
S      -42.87560000     -35.73660000     -70.01280000
H      -44.15170000     -37.02460000     -71.77560000
