40
Properties=species:S:1:pos:R:3 #=T CELL(abcABC):=T 1.889726e+02=T 90.00000=T Traj:=T positionsangstrom=T Step:=T 0=T Bead:=T pbc="F F F"
C      -44.26980000     -32.19150000     -73.33450000
C      -45.42100000     -32.70280000     -73.93660000
C      -46.66500000     -32.35320000     -73.39870000
C      -46.74240000     -31.56150000     -72.22580000
C      -45.56870000     -30.98530000     -71.71770000
C      -44.34620000     -31.32660000     -72.23330000
H      -43.30250000     -32.40770000     -73.70420000
H      -47.56020000     -32.72990000     -73.76700000
H      -45.63900000     -30.20650000     -70.95270000
H      -43.47240000     -30.82450000     -71.77160000
C      -48.08880000     -31.36520000     -71.62710000
H      -48.83400000     -31.57340000     -72.40200000
H      -48.23830000     -30.30010000     -71.29240000
C      -45.38810000     -33.75380000     -75.02990000
H      -46.37780000     -34.08570000     -75.38330000
H      -44.68110000     -33.48450000     -75.79080000
S      -48.42150000     -32.42450000     -70.07850000
S      -44.52030000     -35.26140000     -74.29430000
C      -48.08250000     -34.19500000     -70.57360000
H      -48.99990000     -34.73590000     -70.85600000
H      -47.52070000     -34.20750000     -71.55640000
C      -45.62710000     -35.78650000     -72.90130000
H      -46.30380000     -36.58210000     -73.21210000
H      -46.30090000     -34.95030000     -72.62480000
C      -44.81510000     -36.10650000     -71.64340000
H      -45.52140000     -36.61620000     -70.92480000
H      -44.12400000     -36.92420000     -71.91870000
C      -47.17340000     -34.85160000     -69.45890000
H      -47.12680000     -35.89680000     -69.83260000
H      -47.67570000     -34.86720000     -68.50580000
C      -45.89020000     -34.08900000     -69.23720000
C      -45.74930000     -33.08750000     -68.26860000
C      -44.65110000     -34.09540000     -70.02110000
H      -46.49620000     -32.80480000     -67.58630000
C      -43.72770000     -33.17020000     -69.68320000
C      -44.10550000     -34.98580000     -71.05030000
C      -42.82270000     -34.65520000     -71.42340000
S      -44.26140000     -32.17540000     -68.37020000
S      -42.20910000     -33.28490000     -70.46790000
H      -42.16710000     -35.10040000     -72.21770000
