40
Properties=species:S:1:pos:R:3 #=T CELL(abcABC):=T 1.889726e+02=T 90.00000=T Traj:=T positionsangstrom=T Step:=T 0=T Bead:=T pbc="F F F"
C      -43.98610000     -31.30580000     -71.34510000
C      -45.07060000     -30.76390000     -70.62310000
C      -45.21850000     -31.21860000     -69.29540000
C      -44.23550000     -32.00830000     -68.66380000
C      -43.20860000     -32.58380000     -69.43740000
C      -43.10910000     -32.27660000     -70.81020000
H      -43.99320000     -31.18170000     -72.41800000
H      -46.06010000     -30.90090000     -68.70990000
H      -42.47260000     -33.20040000     -68.93950000
H      -42.38960000     -32.79950000     -71.40610000
C      -44.53440000     -32.48650000     -67.29080000
H      -45.02750000     -31.73810000     -66.75740000
H      -43.57090000     -32.66880000     -66.78460000
C      -46.17020000     -29.91560000     -71.24210000
H      -47.04120000     -29.97440000     -70.58380000
H      -45.83130000     -28.89160000     -71.32800000
S      -45.63800000     -33.96660000     -67.14760000
S      -46.68710000     -30.26850000     -72.99190000
C      -45.09700000     -35.01830000     -68.63380000
H      -44.01710000     -34.95060000     -68.70610000
H      -45.23030000     -36.11110000     -68.30600000
C      -47.97210000     -31.58600000     -72.82720000
H      -48.48980000     -31.62020000     -73.78510000
H      -48.75180000     -31.16020000     -72.14830000
C      -47.51060000     -32.96200000     -72.25050000
H      -47.08430000     -32.75230000     -71.25330000
H      -48.37030000     -33.60080000     -72.14570000
C      -45.92120000     -34.69160000     -69.83630000
H      -45.92510000     -33.62970000     -70.02520000
H      -47.01240000     -34.96130000     -69.58970000
C      -45.39910000     -35.24930000     -71.09600000
C      -44.49200000     -36.28150000     -71.11000000
C      -45.56410000     -34.66980000     -72.43710000
H      -44.20370000     -36.88370000     -70.25330000
C      -44.74080000     -35.31940000     -73.31760000
C      -46.47830000     -33.71040000     -73.05830000
C      -46.31740000     -33.69910000     -74.40230000
S      -43.78830000     -36.63320000     -72.66520000
S      -45.09230000     -34.91790000     -75.00140000
H      -46.78150000     -33.01610000     -75.17840000
