40
Properties=species:S:1:pos:R:3 #=T CELL(abcABC):=T 1.889726e+02=T 90.00000=T Traj:=T positionsangstrom=T Step:=T 0=T Bead:=T pbc="F F F"
C      -45.56830000     -33.40880000     -73.77270000
C      -46.27630000     -34.55430000     -73.36820000
C      -47.49140000     -34.51820000     -72.72740000
C      -47.97210000     -33.29260000     -72.25780000
C      -47.28160000     -32.08500000     -72.69800000
C      -46.06430000     -32.15680000     -73.43090000
H      -44.63320000     -33.53300000     -74.19890000
H      -48.12540000     -35.39170000     -72.55600000
H      -47.85320000     -31.18110000     -72.43110000
H      -45.66190000     -31.16610000     -73.77080000
C      -49.05680000     -33.18830000     -71.25100000
H      -49.52060000     -34.17700000     -71.02900000
H      -49.90340000     -32.50330000     -71.53130000
C      -45.76240000     -35.91420000     -73.73890000
H      -46.59390000     -36.63180000     -73.87920000
H      -45.36830000     -35.96410000     -74.79430000
S      -48.37920000     -32.46070000     -69.61470000
S      -44.43930000     -36.64860000     -72.77370000
C      -47.12540000     -33.70210000     -69.10720000
H      -47.47610000     -34.40550000     -68.32620000
H      -46.86780000     -34.30530000     -69.94840000
C      -45.02090000     -36.40160000     -71.06440000
H      -44.96820000     -37.48490000     -70.62030000
H      -46.03680000     -35.99590000     -71.15860000
C      -44.15860000     -35.44080000     -70.23960000
H      -44.70640000     -35.11890000     -69.33050000
H      -43.30690000     -36.02220000     -69.89760000
C      -45.83370000     -33.22750000     -68.46230000
H      -45.31830000     -34.14660000     -68.07090000
H      -46.18430000     -32.62650000     -67.58680000
C      -44.89690000     -32.39780000     -69.30920000
C      -44.79940000     -31.05120000     -69.06670000
C      -43.97450000     -32.86250000     -70.35760000
H      -45.50460000     -30.44410000     -68.48780000
C      -43.33710000     -31.81490000     -71.00700000
C      -43.63510000     -34.19240000     -70.87630000
C      -42.57250000     -34.05010000     -71.75150000
S      -43.84580000     -30.27350000     -70.37360000
S      -42.11960000     -32.40080000     -72.12890000
H      -42.13590000     -34.84410000     -72.29470000
