40
Properties=species:S:1:pos:R:3 #=T CELL(abcABC):=T 1.889726e+02=T 90.00000=T Traj:=T positionsangstrom=T Step:=T 0=T Bead:=T pbc="F F F"
C      -46.78260000     -35.22540000     -72.66800000
C      -47.41070000     -34.86500000     -71.47240000
C      -47.59880000     -33.49980000     -71.19330000
C      -47.28300000     -32.51550000     -72.14260000
C      -46.50370000     -32.88890000     -73.24220000
C      -46.27670000     -34.23770000     -73.52200000
H      -46.58650000     -36.28650000     -72.80920000
H      -48.22200000     -33.15130000     -70.37970000
H      -46.21090000     -32.07990000     -73.94820000
H      -45.73890000     -34.48560000     -74.46890000
C      -47.65500000     -31.08120000     -72.01600000
H      -48.53600000     -30.95770000     -71.49860000
H      -47.99370000     -30.59830000     -72.96000000
C      -47.89580000     -35.80880000     -70.49450000
H      -48.68180000     -35.36000000     -69.86630000
H      -48.44250000     -36.70130000     -70.92760000
S      -46.54020000     -29.93340000     -71.06910000
S      -46.54050000     -36.34800000     -69.22810000
C      -46.02320000     -30.88280000     -69.54530000
H      -46.16270000     -30.21410000     -68.66090000
H      -46.62330000     -31.78530000     -69.43030000
C      -45.88920000     -34.74440000     -68.61680000
H      -45.93960000     -34.70700000     -67.50490000
H      -46.50930000     -33.90440000     -68.99840000
C      -44.37590000     -34.59160000     -69.00340000
H      -44.04620000     -33.79440000     -68.28200000
H      -43.90620000     -35.56640000     -68.66700000
C      -44.47680000     -31.19260000     -69.58060000
H      -44.16570000     -31.77190000     -68.77230000
H      -44.00720000     -30.21870000     -69.42350000
C      -43.91110000     -31.78420000     -70.87760000
C      -43.54820000     -31.03790000     -71.96930000
C      -43.76140000     -33.21150000     -71.16080000
H      -43.51490000     -30.00090000     -72.01540000
C      -43.29540000     -33.54140000     -72.44160000
C      -44.02920000     -34.45010000     -70.44470000
C      -43.72410000     -35.61780000     -71.09310000
S      -42.82910000     -32.01690000     -73.29780000
S      -43.05570000     -35.19760000     -72.75400000
H      -43.70420000     -36.61130000     -70.69190000
