40
Properties=species:S:1:pos:R:3 #=T CELL(abcABC):=T 1.889726e+02=T 90.00000=T Traj:=T positionsangstrom=T Step:=T 0=T Bead:=T pbc="F F F"
C      -44.59030000     -36.88740000     -70.96890000
C      -45.75860000     -36.51140000     -71.66560000
C      -46.86900000     -35.96420000     -70.96420000
C      -46.72530000     -35.66150000     -69.60340000
C      -45.61940000     -36.18830000     -68.91500000
C      -44.51650000     -36.75850000     -69.57150000
H      -43.63960000     -37.04040000     -71.45480000
H      -47.58110000     -35.47670000     -71.60090000
H      -45.57400000     -35.96990000     -67.80550000
H      -43.55200000     -36.99740000     -69.08510000
C      -47.81470000     -34.93030000     -68.95380000
H      -48.40300000     -35.65630000     -68.27910000
H      -48.40750000     -34.44050000     -69.63230000
C      -45.83470000     -36.73590000     -73.17790000
H      -44.84420000     -36.63880000     -73.62930000
H      -46.15830000     -37.83170000     -73.34160000
S      -47.19090000     -33.58200000     -67.82280000
S      -47.07210000     -35.72450000     -74.15190000
C      -46.09610000     -32.58420000     -68.99080000
H      -46.76840000     -32.35270000     -69.78080000
H      -46.03430000     -31.71490000     -68.34630000
C      -46.34340000     -34.00620000     -74.10890000
H      -47.05510000     -33.33160000     -74.66570000
H      -45.44720000     -34.07460000     -74.66020000
C      -46.00630000     -33.41470000     -72.64510000
H      -46.90710000     -33.26760000     -72.00970000
H      -45.34630000     -34.07900000     -72.09740000
C      -44.67770000     -32.96020000     -69.42970000
H      -44.70920000     -33.92480000     -69.89020000
H      -43.94920000     -33.14620000     -68.57290000
C      -44.04170000     -31.92310000     -70.31060000
C      -43.05370000     -31.06140000     -69.88580000
C      -44.32970000     -31.56810000     -71.71350000
H      -42.69410000     -31.04420000     -68.82190000
C      -43.60720000     -30.47780000     -72.18600000
C      -45.23290000     -32.09690000     -72.72500000
C      -45.14140000     -31.32580000     -73.91040000
S      -42.49230000     -29.86480000     -70.99310000
S      -43.97390000     -29.98830000     -73.74990000
H      -45.65160000     -31.43680000     -74.84970000
