40
Properties=species:S:1:pos:R:3 #=T CELL(abcABC):=T 1.889726e+02=T 90.00000=T Traj:=T positionsangstrom=T Step:=T 0=T Bead:=T pbc="F F F"
C      -47.00460000     -36.73740000     -70.81790000
C      -46.57610000     -36.21100000     -69.62100000
C      -47.18650000     -35.05840000     -69.10770000
C      -48.27220000     -34.44160000     -69.68390000
C      -48.74940000     -35.03780000     -70.91970000
C      -48.07640000     -36.10480000     -71.50370000
H      -46.49070000     -37.63790000     -71.24510000
H      -46.75550000     -34.70150000     -68.22580000
H      -49.50750000     -34.63900000     -71.56000000
H      -48.45280000     -36.41450000     -72.42910000
C      -48.93470000     -33.28450000     -69.08650000
H      -48.85140000     -33.21730000     -68.01340000
H      -49.98260000     -33.17280000     -69.41220000
C      -45.31310000     -36.78990000     -69.05960000
H      -45.44280000     -37.12080000     -68.04850000
H      -44.75380000     -37.52660000     -69.71560000
S      -48.27140000     -31.56220000     -69.64310000
S      -44.08100000     -35.50070000     -68.80730000
C      -47.07330000     -31.72280000     -71.01140000
H      -47.03400000     -32.72280000     -71.50870000
H      -47.41400000     -31.13530000     -71.86480000
C      -43.33760000     -35.07050000     -70.45470000
H      -42.63530000     -35.86650000     -70.78520000
H      -42.71410000     -34.23330000     -70.21700000
C      -44.21690000     -34.68940000     -71.54880000
H      -44.52590000     -35.60650000     -72.00290000
H      -45.11940000     -34.23240000     -71.06350000
C      -45.62930000     -31.26600000     -70.65980000
H      -45.14160000     -31.91820000     -69.91040000
H      -45.60020000     -30.22570000     -70.29070000
C      -44.65190000     -31.18770000     -71.82320000
C      -44.40430000     -29.96790000     -72.35640000
C      -43.91810000     -32.25500000     -72.56200000
H      -45.18510000     -29.18370000     -72.27220000
C      -43.19030000     -31.74160000     -73.63350000
C      -43.67720000     -33.69480000     -72.51400000
C      -42.86250000     -34.14860000     -73.56860000
S      -43.28660000     -30.00350000     -73.71910000
S      -42.36310000     -32.82490000     -74.66680000
H      -42.65210000     -35.20990000     -73.73120000
