40
Properties=species:S:1:pos:R:3 #=T CELL(abcABC):=T 1.889726e+02=T 90.00000=T Traj:=T positionsangstrom=T Step:=T 0=T Bead:=T pbc="F F F"
C      -46.82460000     -36.66020000     -70.39430000
C      -45.46260000     -36.56810000     -70.49710000
C      -44.78680000     -35.94140000     -69.45500000
C      -45.39720000     -35.42400000     -68.30550000
C      -46.80150000     -35.59690000     -68.18640000
C      -47.49370000     -36.15650000     -69.27360000
H      -47.49040000     -37.06470000     -71.18900000
H      -43.75990000     -35.83970000     -69.52840000
H      -47.37090000     -35.00760000     -67.47740000
H      -48.59900000     -36.28380000     -69.22960000
C      -44.61170000     -34.59330000     -67.40140000
H      -43.58060000     -34.83750000     -67.62020000
H      -45.02980000     -34.79580000     -66.41660000
C      -44.80250000     -37.26890000     -71.62850000
H      -44.27430000     -38.15740000     -71.24110000
H      -45.48480000     -37.61780000     -72.40150000
S      -44.76930000     -32.74250000     -67.50380000
S      -43.47140000     -36.30960000     -72.39260000
C      -45.46060000     -32.35280000     -69.18550000
H      -45.80540000     -33.33680000     -69.69730000
H      -46.37320000     -31.88560000     -68.95540000
C      -44.46290000     -34.76990000     -72.81940000
H      -45.09670000     -34.46260000     -72.01950000
H      -45.04500000     -35.06220000     -73.68830000
C      -43.53420000     -33.60770000     -73.25350000
H      -42.96530000     -33.37650000     -72.38140000
H      -42.88740000     -33.98050000     -74.04060000
C      -44.40690000     -31.72010000     -70.21800000
H      -43.74680000     -32.54660000     -70.55680000
H      -43.73780000     -30.95220000     -69.79570000
C      -45.15000000     -31.19160000     -71.33900000
C      -46.06470000     -30.20470000     -71.09590000
C      -45.17000000     -31.58730000     -72.78170000
H      -46.37090000     -29.84840000     -70.12970000
C      -46.12750000     -30.84270000     -73.45990000
C      -44.38840000     -32.41830000     -73.71890000
C      -44.71030000     -32.23520000     -74.99540000
S      -47.02370000     -29.70390000     -72.48780000
S      -46.03250000     -31.14480000     -75.17510000
H      -44.22140000     -32.62230000     -75.84600000
