40
Properties=species:S:1:pos:R:3 #=T CELL(abcABC):=T 1.889726e+02=T 90.00000=T Traj:=T positionsangstrom=T Step:=T 0=T Bead:=T pbc="F F F"
C      -47.60790000     -32.51450000     -73.80310000
C      -46.85960000     -31.37490000     -73.54090000
C      -45.47120000     -31.42500000     -73.87100000
C      -44.81200000     -32.62080000     -74.08980000
C      -45.59840000     -33.75680000     -74.24330000
C      -46.98630000     -33.69990000     -74.17420000
H      -48.73730000     -32.39380000     -73.77470000
H      -44.84310000     -30.55110000     -73.72970000
H      -45.06630000     -34.68810000     -74.46240000
H      -47.61320000     -34.52870000     -74.43620000
C      -43.29890000     -32.65010000     -74.31340000
H      -42.88660000     -32.08190000     -75.21670000
H      -43.00260000     -33.71040000     -74.39210000
C      -47.47120000     -30.14950000     -72.92660000
H      -47.30320000     -29.21040000     -73.53370000
H      -48.54150000     -30.28020000     -72.93600000
S      -42.37240000     -32.14580000     -72.84900000
S      -46.97530000     -29.72600000     -71.21270000
C      -42.81050000     -33.51350000     -71.75880000
H      -43.86080000     -33.71660000     -72.06740000
H      -42.22630000     -34.39470000     -72.10910000
C      -47.17040000     -31.49650000     -70.46510000
H      -48.08060000     -31.93990000     -70.89960000
H      -47.29680000     -31.37740000     -69.38080000
C      -46.05230000     -32.47020000     -70.66940000
H      -46.06440000     -32.85620000     -71.73140000
H      -45.04520000     -32.00410000     -70.51140000
C      -42.66700000     -33.53060000     -70.25960000
H      -43.08030000     -32.53220000     -69.89820000
H      -41.61740000     -33.54650000     -69.97390000
C      -43.48830000     -34.65480000     -69.73260000
C      -42.90600000     -35.85270000     -69.36240000
C      -44.96940000     -34.66020000     -69.64750000
H      -41.87180000     -36.06320000     -69.42620000
C      -45.39470000     -35.80490000     -69.06490000
C      -46.13780000     -33.74780000     -69.86190000
C      -47.33310000     -34.30550000     -69.50730000
S      -44.16940000     -37.02400000     -68.84320000
S      -47.15140000     -35.97060000     -68.87240000
H      -48.26570000     -33.85740000     -69.39490000
