40
Properties=species:S:1:pos:R:3 #=T CELL(abcABC):=T 1.889726e+02=T 90.00000=T Traj:=T positionsangstrom=T Step:=T 0=T Bead:=T pbc="F F F"
C      -48.95500000     -33.03850000     -70.47040000
C      -48.04080000     -32.23720000     -69.73430000
C      -47.38680000     -31.24170000     -70.43660000
C      -47.62590000     -31.03280000     -71.79770000
C      -48.61340000     -31.72190000     -72.43580000
C      -49.19560000     -32.83920000     -71.80350000
H      -49.48410000     -33.80900000     -69.90200000
H      -46.54970000     -30.72240000     -69.91470000
H      -49.02040000     -31.35400000     -73.40910000
H      -49.86730000     -33.52700000     -72.37560000
C      -46.89270000     -29.86860000     -72.41640000
H      -47.36360000     -28.99580000     -71.98110000
H      -47.07730000     -29.68910000     -73.50810000
C      -47.70280000     -32.55250000     -68.35070000
H      -46.76710000     -31.99910000     -68.22660000
H      -48.43260000     -32.21680000     -67.71300000
S      -45.09430000     -29.65860000     -71.95530000
S      -47.31740000     -34.32350000     -68.14330000
C      -44.43420000     -31.39840000     -72.24890000
H      -45.25070000     -32.14460000     -72.48030000
H      -43.92020000     -31.35280000     -73.20500000
C      -45.78480000     -34.57610000     -69.15970000
H      -45.49940000     -35.57820000     -68.98920000
H      -44.93540000     -33.94480000     -68.89330000
C      -45.99530000     -34.38720000     -70.69830000
H      -46.99220000     -34.73760000     -70.95830000
H      -46.08310000     -33.32000000     -70.87840000
C      -43.46210000     -31.98510000     -71.21190000
H      -44.02290000     -32.10370000     -70.30850000
H      -42.69570000     -31.32440000     -71.02870000
C      -42.89620000     -33.30430000     -71.78330000
C      -41.66710000     -33.35930000     -72.35970000
C      -43.55500000     -34.62310000     -71.79220000
H      -40.96430000     -32.43100000     -72.54110000
C      -42.81650000     -35.52530000     -72.53680000
C      -44.87040000     -35.11540000     -71.43320000
C      -45.00890000     -36.42990000     -71.76540000
S      -41.24720000     -34.98120000     -73.01230000
S      -43.57580000     -37.13520000     -72.60910000
H      -45.95680000     -36.93350000     -71.67660000
