40
Properties=species:S:1:pos:R:3 #=T CELL(abcABC):=T 1.889726e+02=T 90.00000=T Traj:=T positionsangstrom=T Step:=T 0=T Bead:=T pbc="F F F"
C      -48.37710000     -34.32880000     -69.21890000
C      -48.24470000     -34.44860000     -70.59350000
C      -47.43710000     -35.41700000     -71.13460000
C      -46.59780000     -36.28770000     -70.29840000
C      -46.65310000     -36.11630000     -68.93000000
C      -47.62510000     -35.17560000     -68.38790000
H      -48.97570000     -33.57050000     -68.72230000
H      -47.38550000     -35.74410000     -72.17040000
H      -46.32430000     -36.99730000     -68.37000000
H      -47.83070000     -35.27450000     -67.32060000
C      -46.00910000     -37.49080000     -70.98570000
H      -46.83630000     -38.06580000     -71.42900000
H      -45.49940000     -38.21960000     -70.41030000
C      -49.14600000     -33.61260000     -71.50660000
H      -48.73030000     -33.78720000     -72.54080000
H      -50.21700000     -33.96090000     -71.43350000
S      -44.71910000     -37.15230000     -72.33430000
S      -49.13740000     -31.76450000     -71.26160000
C      -44.37110000     -35.25700000     -72.26620000
H      -43.62450000     -35.01100000     -73.07170000
H      -45.24010000     -34.64350000     -72.53370000
C      -47.43480000     -31.21100000     -71.74980000
H      -47.49390000     -30.15050000     -71.48990000
H      -47.36160000     -31.20840000     -72.86510000
C      -46.27430000     -32.07360000     -71.15450000
H      -46.29070000     -32.09190000     -70.03940000
H      -46.40740000     -33.09220000     -71.34640000
C      -43.78160000     -34.72090000     -70.95670000
H      -43.06520000     -35.49410000     -70.60500000
H      -44.51100000     -34.58850000     -70.15800000
C      -43.05640000     -33.39350000     -71.21700000
C      -41.70580000     -33.41170000     -71.36020000
C      -43.58980000     -32.09550000     -71.59730000
H      -41.19770000     -34.34730000     -71.13820000
C      -42.58110000     -31.21580000     -71.94470000
C      -44.94870000     -31.50710000     -71.69970000
C      -44.83210000     -30.17810000     -72.06360000
S      -40.95860000     -31.86290000     -71.84270000
S      -43.20330000     -29.63140000     -72.29400000
H      -45.62690000     -29.47350000     -72.29640000
